     1920
Lattice="24.30      0.00      0.00      0.00     24.30      0.00      0.00      0.00     45.39" Properties=species:S:1:pos:R:3:charge:R:1:forces:R:3 pbc="T T T" config_type=md
 Y   1.600605750385E-02  3.546590171219E+00  8.268941092576E+00  0.000000000000E+00 -9.442176049731E-02 -1.338773642879E-02 -2.397650122527E-02        1
 Y   3.070146335335E+00  1.747518577907E+00  2.594034256351E+00  0.000000000000E+00 -1.786644666668E-02 -9.215981708062E-03  5.397198611781E-02        2
 Y   2.291323179938E-02  3.500429525326E+00  2.621390598107E+00  0.000000000000E+00  1.199253382447E-02 -6.101939330331E-03 -2.187150664437E-02        3
 Y   3.066080297380E+00  1.802480386365E+00  8.351824295151E+00  0.000000000000E+00 -3.542293319714E-02  5.547923079418E-02  1.017302924315E-01        4
 Mn  1.068484909309E+00  1.775396672160E+00  5.646195921254E+00  0.000000000000E+00 -2.456786941669E-02 -8.425887416021E-02  4.546965297857E-02        9
 Mn  4.076393949834E+00  3.487656832703E+00  5.632717790138E+00  0.000000000000E+00  3.271559633513E-02  3.846339071621E-02 -2.909523701185E-04       12
 O   1.059270355540E-01  3.518826732415E+00  5.909514602382E+00  0.000000000000E+00  9.718596605929E-02 -1.440483836578E-01 -6.980230451067E-04       13
 O   3.028641407954E+00  1.758696840896E+00  1.612641376205E-01  0.000000000000E+00  7.158859891112E-02  4.306646197757E-02  1.779575913707E-02       14
 O  -1.474601955632E-01  3.495492919466E+00  3.203012548995E-01  0.000000000000E+00  2.124811734728E-01  1.265229554574E-01 -6.949830190168E-02       15
 O   3.115720930716E+00  1.729829382762E+00  5.959390971508E+00  0.000000000000E+00 -1.413453446483E-01 -7.823121567309E-02 -1.449122049839E-01       16
 O   3.032896962406E+00  5.239107426451E+00  5.367105227891E+00  0.000000000000E+00 -1.353546651624E-01  8.137349526910E-02  1.881001441271E-01       17
 O   3.042298478474E+00  5.388145182418E+00  1.099596296713E+01  0.000000000000E+00  1.740611552458E-01  3.388252064766E-02  1.213070046900E-01       18
 O   4.211838293093E+00  3.410218016185E+00  3.767958545363E+00  0.000000000000E+00 -5.572254787033E-02 -1.857984990185E-01  7.213121387613E-02       19
 O  -9.192083600128E-01  5.320658225211E+00  9.476345387806E+00  0.000000000000E+00  2.154242831238E-01 -1.460312334376E-01  8.545641142357E-03       20
 O   2.001128675546E+00  3.436891622212E+00  9.468267894426E+00  0.000000000000E+00 -3.835595735019E-02  9.095281488424E-02 -9.020411716908E-02       21
 O   1.105560729023E+00  1.884346600674E+00  3.784734632805E+00  0.000000000000E+00  5.370873981965E-02 -5.861504035171E-02 -2.208379119893E-01       22
 O   8.295042094283E-01  5.290465231313E+00  3.781016312124E+00  0.000000000000E+00 -1.251493997695E-02 -9.905654750169E-02  9.478180773227E-02       23
 O   4.996673305631E+00  1.973232898074E+00  9.491232986204E+00  0.000000000000E+00 -2.248398586261E-01  1.090301015010E-02 -1.370051782024E-02       24
 O  -1.191627880437E+00  5.346432456922E+00  1.823695550663E+00  0.000000000000E+00  5.903602129752E-02 -9.728184489049E-03 -2.544251544111E-01       26
 O   2.078323333095E+00  3.602432314528E+00  1.830844702600E+00  0.000000000000E+00 -7.300932273406E-02 -2.897672572946E-02 -1.587411724713E-01       27
 O   9.879906148649E-01  1.680761233919E+00  7.536492151182E+00  0.000000000000E+00 -1.233289714556E-01 -9.117449306286E-02  1.913612506424E-01       28
 O   1.166750368495E+00  5.301991626714E+00  7.522377775053E+00  0.000000000000E+00 -4.885025839241E-02  2.815668984368E-02  1.090475989998E-01       29
 Y   3.680473274215E-02  3.494745340525E+00  1.966747349270E+01  0.000000000000E+00 -8.526069075226E-02  3.916940864807E-02 -4.885167850837E-02       31
 Y   3.060778997486E+00  1.740503485659E+00  1.394474305673E+01  0.000000000000E+00  3.070572813447E-02 -1.260176911821E-03 -7.326901914189E-02       32
 Y   2.612976166267E-02  3.518544232219E+00  1.397809852605E+01  0.000000000000E+00  1.665008134938E-02 -1.208882961303E-03  2.992012754348E-02       33
 Y   2.974572128542E+00  1.833809800383E+00  1.966695824717E+01  0.000000000000E+00  4.903642379366E-02  4.150099238693E-02  3.419844688063E-02       34
 Mn  9.246588898087E-01  1.730119463674E+00  1.704797190472E+01  0.000000000000E+00 -3.244690424684E-02  3.303814763693E-02 -3.912160707470E-02       39
 Mn  2.064425488045E+00  3.506814377200E+00  1.135355772652E+01  0.000000000000E+00  1.482248570223E-02 -6.646938057615E-02 -9.324015807612E-02       40
 Mn  3.989686847808E+00  3.501990922116E+00  1.699627385117E+01  0.000000000000E+00  1.284095241087E-01  4.419847885025E-02  1.216933578090E-01       42
 O   8.067004753249E-03  3.521772345693E+00  1.730432631778E+01  0.000000000000E+00  1.915241809625E-01  6.382969366329E-02  6.050994553786E-02       43
 O   3.128449471016E+00  1.803328319060E+00  1.157085436461E+01  0.000000000000E+00  5.272181314858E-02  2.893306055839E-02 -3.376277628926E-02       44
 O   4.548733049893E-02  3.585149840094E+00  1.160454123567E+01  0.000000000000E+00  1.267705642106E-01  2.283592657758E-02 -2.427560656222E-01       45
 O   2.999384900574E+00  1.775461851865E+00  1.722192455952E+01  0.000000000000E+00 -6.639002871530E-02  1.755320092955E-01 -9.644782696484E-02       46
 O   3.044369983718E+00  5.257011670349E+00  1.668125186740E+01  0.000000000000E+00 -4.279091845320E-02 -1.443507893423E-02  1.012948053818E-01       47
 O   3.039090661345E+00  5.292854084078E+00  2.251905539435E+01  0.000000000000E+00  4.107401748208E-02 -1.188710008627E-02 -1.093322915973E-01       48
 O   4.126357355242E+00  3.364528281193E+00  1.516926434196E+01  0.000000000000E+00 -1.188373276064E-01  2.189974754243E-01 -7.848884324444E-02       49
 O  -7.576944616782E-01  5.163261766995E+00  2.087614342210E+01  0.000000000000E+00 -1.354489364921E-01 -1.814303600949E-02  1.435670000602E-01       50
 O   1.883733171107E+00  3.321942593870E+00  2.094872766640E+01  0.000000000000E+00  1.259921490241E-01 -1.472507214267E-01 -1.387298301675E-01       51
 O   1.077361673879E+00  1.901198967737E+00  1.520315897777E+01  0.000000000000E+00 -1.438228973159E-01  1.082632954502E-01  8.523824990363E-02       52
 O   8.554704857922E-01  5.254643184103E+00  1.521209238457E+01  0.000000000000E+00  5.388692544958E-02  1.108785079584E-01  8.000772656897E-02       53
 O   4.904488200265E+00  1.942979835298E+00  2.084776033435E+01  0.000000000000E+00 -9.447020722536E-04 -4.200754206551E-01 -2.038585900468E-03       54
 O  -1.140920083557E+00  5.218425229342E+00  1.326163545968E+01  0.000000000000E+00 -8.019055921935E-02 -1.842238927451E-01 -1.302376014179E-01       56
 O   2.132908511559E+00  3.621756547126E+00  1.323777753708E+01  0.000000000000E+00  1.967296165440E-01 -1.013510879192E-01  5.143957815648E-03       57
 O   9.210341985507E-01  1.533832275432E+00  1.886174991292E+01  0.000000000000E+00  1.228310861282E-01  4.228960124498E-02  1.760669014650E-01       58
 O   1.281713491348E+00  5.255934014836E+00  1.893859648403E+01  0.000000000000E+00 -1.054068091672E-01  2.956691713376E-01 -2.221958321466E-01       59
 Y  -3.074424924063E+00  8.832724133648E+00  8.263826778421E+00  0.000000000000E+00  1.395066192683E-02  5.502582528222E-02  1.830630426251E-02      121
 Y   1.337644619128E-02  7.063813442789E+00  2.565494910122E+00  0.000000000000E+00  1.560142034001E-01 -3.625383045846E-02  3.041271313254E-02      122
 Y  -3.056804213136E+00  8.720696427587E+00  2.556714940107E+00  0.000000000000E+00  1.725192760473E-03 -9.471770852168E-02 -2.499230581590E-02      123
 Y  -2.435635312018E-02  7.036467360587E+00  8.297459556490E+00  0.000000000000E+00 -3.805386312931E-02 -5.333604160297E-02  2.666733300241E-02      124
 Y   3.105967880221E+00  5.271734839337E+00  3.037162982478E+00  0.000000000000E+00 -1.207060048768E-02  1.783702739749E-02  1.486275900069E-02      125
 Mn  1.073593207744E+00  5.256804443257E+00  5.616564265267E+00  0.000000000000E+00 -4.420625552936E-02 -4.118632640629E-02  2.532538849634E-02      128
 Mn -2.033532665296E+00  6.984900829270E+00  5.665150074757E+00  0.000000000000E+00 -6.455137184157E-02 -1.328202653583E-02 -5.565137376295E-02      129
 Mn  1.010148946264E+00  8.833132051941E+00  5.617190215708E+00  0.000000000000E+00  4.906807605032E-02 -1.093088252145E-01 -3.999058238985E-02      132
 O  -2.999016858763E+00  8.798104780742E+00  5.943912041838E+00  0.000000000000E+00 -8.854800570921E-02  8.689545525055E-02 -9.865936851674E-02      133
 O  -3.107511163605E+00  8.627087755844E+00  2.245909982789E-01  0.000000000000E+00  6.504975484491E-02  8.457012253475E-02  1.190504488512E-02      135
 O   7.156928723911E-02  7.000275899603E+00  5.854293901788E+00  0.000000000000E+00 -3.122884951651E-01 -5.887746819228E-02  6.997481465684E-02      136
 O   1.046913240221E+00  8.669394909638E+00  3.734991963686E+00  0.000000000000E+00  3.303501154430E-01  7.560325301681E-02 -4.050434047933E-02      139
 O  -1.192978932556E+00  8.578348521287E+00  9.466276616839E+00  0.000000000000E+00  7.612408274554E-02 -1.303933436156E-01 -1.315383977866E-01      141
 O  -1.989063307792E+00  7.143545000750E+00  3.744152731036E+00  0.000000000000E+00 -1.042548873024E-01 -2.327672770835E-01  9.133828469414E-02      142
 O   1.888476054627E+00  7.190326366546E+00  9.525533037681E+00  0.000000000000E+00  1.076205989813E-03  8.031469562364E-03  9.217513350585E-02      144
 O  -9.760550643703E-01  8.918329532980E+00  1.831171458179E+00  0.000000000000E+00 -8.641483701360E-02 -5.023857549514E-02 -9.362345652757E-02      147
 O  -2.127548104391E+00  6.877342669974E+00  7.487484396467E+00  0.000000000000E+00  3.060829081027E-01  5.866619130759E-02 -2.131547856209E-01      148
 Y  -3.061008984707E+00  8.787563779199E+00  1.970406003078E+01  0.000000000000E+00  3.518757303012E-02  1.243938107955E-01 -4.834151723216E-02      151
 Y   2.011773688395E-02  6.953883252686E+00  1.396442593265E+01  0.000000000000E+00  1.741878223547E-02 -3.086099743015E-02 -2.017701911683E-02      152
 Y  -2.959032988162E+00  8.735096389799E+00  1.397412387599E+01  0.000000000000E+00 -2.047744397593E-02 -3.065804217386E-02 -4.090259272943E-02      153
 Y   3.610943497468E-02  7.027113116064E+00  1.976595198698E+01  0.000000000000E+00  6.086740601632E-02 -3.619094104353E-03 -5.836771170718E-03      154
 Y   3.031224444052E+00  5.206959448832E+00  1.440077948023E+01  0.000000000000E+00 -1.311358858174E-02 -2.853714068919E-02  9.267120542017E-02      155
 Mn  1.030214454433E+00  5.249700962676E+00  1.703975048615E+01  0.000000000000E+00 -5.841380355817E-03  1.612379983095E-01  2.454813024299E-02      158
 Mn -2.093469367284E+00  6.986608355455E+00  1.709605578121E+01  0.000000000000E+00  1.748833614131E-01  3.938574464969E-02  3.061862408377E-02      159
 Mn -9.330342640260E-01  8.726308025408E+00  1.133822666596E+01  0.000000000000E+00  5.399926797695E-02 -3.786818093013E-02 -5.869509386654E-02      160
 Mn -1.121804452690E+00  5.277383425236E+00  1.134100391396E+01  0.000000000000E+00  5.064202732483E-02  8.470370624050E-03 -9.224343338552E-02      161
 Mn  9.619937340125E-01  8.644796424316E+00  1.704818585515E+01  0.000000000000E+00  8.760015391421E-02  6.064795047270E-02 -7.391132177718E-02      162
 O  -3.022609059822E+00  8.732465835269E+00  1.735040213988E+01  0.000000000000E+00 -1.425930524496E-01  7.796029946747E-02 -1.258397530017E-02      163
 O  -5.019164565646E-02  6.932573843990E+00  1.161013310556E+01  0.000000000000E+00 -2.085146874625E-02  1.135490665840E-02 -1.170535079097E-01      164
 O  -3.027618155240E+00  8.795437874457E+00  1.151934905275E+01  0.000000000000E+00  4.019163196931E-02 -3.159216546235E-02  1.347537971322E-01      165
 O  -4.997266937519E-02  7.002299064274E+00  1.733855746091E+01  0.000000000000E+00 -1.356879762628E-01 -1.983186698729E-01  5.129637707664E-02      166
 O   1.096049212791E+00  8.566932190937E+00  1.523982360770E+01  0.000000000000E+00 -2.542039038470E-01  1.309457271258E-01 -9.482624404910E-02      169
 O  -1.155581213105E+00  8.660830349185E+00  2.087862017954E+01  0.000000000000E+00 -2.114818754625E-02  3.175166735050E-02 -1.098396071529E-01      171
 O  -1.927527085721E+00  7.195105827013E+00  1.523199000418E+01  0.000000000000E+00 -5.604224833534E-02 -1.445883246438E-01  2.484074358282E-02      172
 O   1.932776428750E+00  7.146722231262E+00  2.084091492401E+01  0.000000000000E+00 -1.006577046865E-01 -1.105977850273E-02  5.214455617983E-02      174
 O  -9.016825246023E-01  8.825348555538E+00  1.322997195272E+01  0.000000000000E+00 -9.021770119205E-02 -1.208797149741E-01 -2.818516179405E-01      177
 O  -2.051777819480E+00  6.819476540683E+00  1.902387868376E+01  0.000000000000E+00 -4.934099353463E-03  2.931757739672E-02  1.206636747690E-01      178
 Y   6.063058579842E+00  3.552648375736E+00  8.283752441284E+00  0.000000000000E+00  5.947023459968E-03 -2.538603563481E-02  5.579925195701E-02      481
 Y   9.090476225153E+00  1.785469089522E+00  2.680810282920E+00  0.000000000000E+00  7.241062963386E-03  1.720554312582E-02 -1.085021968027E-02      482
 Y   6.111214100795E+00  3.544133605653E+00  2.532001473627E+00  0.000000000000E+00  3.139654215165E-02 -2.822477397167E-02  1.437749352444E-01      483
 Y   9.094777918144E+00  1.731779579654E+00  8.248822784488E+00  0.000000000000E+00  3.895676682984E-02 -1.867428078469E-02  7.802267226546E-02      484
 Mn  7.047113665223E+00  1.767339001659E+00  5.631478267382E+00  0.000000000000E+00 -9.119246129697E-02 -2.032379660785E-02  4.781728519155E-02      489
 O   6.101372598497E+00  3.538586953916E+00  5.928393760417E+00  0.000000000000E+00 -1.968688274287E-01 -2.304682257637E-01 -1.245729909898E-02      493
 O   9.090492960448E+00  1.724821335698E+00  2.291331672089E-01  0.000000000000E+00  1.396808996414E-01 -2.434968960670E-02  3.427897363373E-02      494
 O   9.056547161291E+00  1.756461031364E+00  5.814280958750E+00  0.000000000000E+00  2.830346868366E-01  2.958160385948E-02  8.022246989924E-02      496
 O   5.244681449713E+00  5.295191298253E+00  9.431015623504E+00  0.000000000000E+00 -2.676912024885E-02 -1.050305917293E-02 -1.071341713738E-01      500
 O   8.003755046317E+00  3.356633508582E+00  9.497970940644E+00  0.000000000000E+00  4.085758148337E-02  9.426647607363E-02  5.621635791736E-02      501
 O   7.093184170342E+00  1.986946394485E+00  3.779790641127E+00  0.000000000000E+00  2.218427334917E-04  2.161545424783E-02  4.384369685542E-02      502
 O   6.973144547037E+00  5.190927819559E+00  3.836444943764E+00  0.000000000000E+00  2.233655902335E-01 -1.083166414740E-01 -3.691690433121E-02      503
 O   3.966955288664E+00  3.684365610550E+00  7.488732546438E+00  0.000000000000E+00  2.755731725549E-02 -1.934499626405E-01 -8.436479845271E-02      505
 O   4.920656010840E+00  5.322738883942E+00  1.747264616335E+00  0.000000000000E+00 -6.121418524544E-02 -4.061765825811E-01 -4.070364402176E-02      506
 O   8.194264171531E+00  3.653584188824E+00  1.874727410138E+00  0.000000000000E+00 -1.516222961278E-01  2.627709392705E-01  5.315871504454E-02      507
 O   7.006987343867E+00  1.587654378470E+00  7.490905741476E+00  0.000000000000E+00  5.783288920184E-02  1.509105025678E-02  5.025080066292E-02      508
 O   7.232313116761E+00  5.330612189925E+00  7.523358521879E+00  0.000000000000E+00 -2.985579949837E-01 -2.845045428810E-01  2.236296984830E-02      509
 O   5.181960689076E+00  1.597079940447E+00  1.857570472320E+00  0.000000000000E+00 -3.254633692862E-01  2.971307520758E-05 -1.916994761040E-01      510
 Y   6.036186314778E+00  3.485840585194E+00  1.965119999822E+01  0.000000000000E+00  1.328303150433E-01  1.258849868902E-01 -8.862858734826E-02      511
 Y   9.066313797888E+00  1.810167599558E+00  1.393886839686E+01  0.000000000000E+00 -4.129267667746E-02 -7.401863725376E-02  1.560303584649E-02      512
 Y   6.085215508198E+00  3.538660014754E+00  1.393601188352E+01  0.000000000000E+00 -1.382320434534E-02 -4.489344880511E-02  2.190152197275E-02      513
 Y   9.082031750804E+00  1.778766300693E+00  1.967046579048E+01  0.000000000000E+00 -8.240342968405E-03 -1.575692706072E-02 -8.430223403909E-03      514
 Mn  5.208345764840E+00  1.858650044367E+00  1.132662076675E+01  0.000000000000E+00  1.066625131623E-01 -1.099202431913E-01  4.170766366361E-02      517
 Mn  7.084213924785E+00  1.798087771291E+00  1.700443169883E+01  0.000000000000E+00 -9.429303655108E-03 -1.295303039230E-02  6.097757231998E-02      519
 Mn  8.085194465674E+00  3.549294481414E+00  1.132551836696E+01  0.000000000000E+00  1.132135179559E-02  4.984917047064E-02  4.843141515550E-02      520
 O   6.035222282763E+00  3.606946755294E+00  1.735106875188E+01  0.000000000000E+00 -2.605468317744E-02 -7.967928134439E-03 -1.680044943739E-01      523
 O   9.073262111422E+00  1.871292907670E+00  1.159942987776E+01  0.000000000000E+00  7.249265791677E-02  1.673823553037E-03  1.753643869380E-01      524
 O   6.158359938214E+00  3.581377332195E+00  1.148803675464E+01  0.000000000000E+00  5.179815544660E-02  7.047040809981E-02  1.595666720032E-01      525
 O   9.099621304718E+00  1.714578174334E+00  1.721765174955E+01  0.000000000000E+00  1.483922631486E-01 -1.166046331780E-01 -1.235414756638E-01      526
 O   5.266268900374E+00  5.304951265208E+00  2.085358643845E+01  0.000000000000E+00  7.733041890917E-02 -1.738294401721E-01  1.555194678317E-01      530
 O   7.967090425935E+00  3.280683449503E+00  2.088330612677E+01  0.000000000000E+00 -2.206775700378E-01 -2.317476125913E-01 -1.251188478974E-02      531
 O   7.169245115019E+00  2.008647068637E+00  1.514505750654E+01  0.000000000000E+00  5.039367661520E-02  4.957330537368E-02  2.398570468523E-01      532
 O   6.916978703246E+00  5.231670505718E+00  1.515395309288E+01  0.000000000000E+00  2.866225932794E-01 -2.292074340824E-02  1.323618261284E-01      533
 O   3.944146712895E+00  3.668849093222E+00  1.887985287470E+01  0.000000000000E+00 -3.258350109512E-02 -5.498241009228E-02 -1.149334422976E-01      535
 O   4.864659648152E+00  5.274809846640E+00  1.313367367753E+01  0.000000000000E+00 -7.025599848130E-02  9.064182991812E-03  2.009665480650E-01      536
 O   8.187181780566E+00  3.767527897197E+00  1.320474474231E+01  0.000000000000E+00  1.932761730579E-01  8.374248118837E-02 -6.305471182620E-02      537
 O   6.959822369340E+00  1.618156188166E+00  1.882354596425E+01  0.000000000000E+00 -2.611491226316E-02 -1.200350203385E-01  5.926626865979E-02      538
 O   7.290685668212E+00  5.295230612189E+00  1.891184358291E+01  0.000000000000E+00  4.278994352835E-02  6.831442991547E-03  1.499695866736E-01      539
 O   5.196528723634E+00  1.668663278682E+00  1.321092679665E+01  0.000000000000E+00  2.122196384511E-01 -2.478897030064E-01 -1.359635350986E-01      540
 Y   2.977360029373E+00  8.820077077067E+00  8.292367008247E+00  0.000000000000E+00  2.227594118717E-03  9.168018148764E-02 -9.757586765401E-03      601
 Y   6.111665317495E+00  7.015802034634E+00  2.549558786178E+00  0.000000000000E+00 -1.094589259091E-01 -3.195575955488E-02  3.527941727283E-02      602
 Y   3.056785130658E+00  8.794997724592E+00  2.677988366495E+00  0.000000000000E+00 -4.658803571416E-02 -8.740541132211E-02  4.125616175940E-02      603
 Y   6.027181381666E+00  7.100458076551E+00  8.202112099176E+00  0.000000000000E+00 -5.360372009714E-02  9.168129377928E-02  1.442534891646E-02      604
 Y   3.045772553039E+00  5.405620789035E+00  8.665277769109E+00  0.000000000000E+00  1.023705179628E-01  9.176551144875E-02  2.668902819473E-02      606
 Mn  7.106856353461E+00  5.216299954715E+00  5.666113507840E+00  0.000000000000E+00 -5.805014515773E-02  3.899205487678E-03  2.507524981213E-03      608
 Mn  4.034950889393E+00  7.027442148358E+00  5.619026094532E+00  0.000000000000E+00 -4.264414946797E-02 -5.167768358407E-02 -1.680897026912E-01      609
 O   3.003154570831E+00  8.918981063695E+00  5.863430870634E+00  0.000000000000E+00  2.295894727129E-02  1.289080061258E-01  9.064327646031E-02      613
 O   3.151460443499E+00  8.737875826673E+00  2.485038936152E-01  0.000000000000E+00  1.647117641214E-02 -1.141244441456E-02 -1.880781448232E-01      615
 O   6.066271602115E+00  7.061651299332E+00  5.906442366282E+00  0.000000000000E+00 -1.265561629443E-01  2.005771632604E-01  2.002251729776E-02      616
 O   4.887635122537E+00  8.682294674466E+00  9.539419526304E+00  0.000000000000E+00 -3.258891554646E-02  1.103496247990E-01 -1.095711822653E-01      621
 O   4.173295977214E+00  7.081513097217E+00  3.748890535960E+00  0.000000000000E+00 -9.427220269013E-03  8.730964558588E-02  3.361593842056E-02      622
 O   8.797688742940E-01  8.893925249562E+00  7.496245306156E+00  0.000000000000E+00 -2.087322202629E-02 -3.251823523931E-02  1.654784384156E-01      625
 O   5.148431590999E+00  8.909512100767E+00  1.885930322717E+00  0.000000000000E+00 -6.679286112871E-02  1.553109937067E-01  3.054882891241E-02      627
 O   3.924989593211E+00  7.024175040167E+00  7.456045189881E+00  0.000000000000E+00  9.425162826211E-02 -5.588791656908E-02  2.250638458884E-01      628
 O   2.149423409377E+00  6.952565823035E+00  1.882822785499E+00  0.000000000000E+00 -7.189003299420E-02  9.407834195019E-02 -1.503784973112E-01      630
 Y   3.015667068593E+00  8.748110807338E+00  1.962406234451E+01  0.000000000000E+00  4.153324228275E-02 -1.013681016491E-02 -3.000477397889E-02      631
 Y   6.064500273322E+00  7.013832134358E+00  1.398438353547E+01  0.000000000000E+00 -7.263316051427E-03 -3.578219795628E-02 -4.780849349430E-02      632
 Y   2.913927284095E+00  8.796110310300E+00  1.405106789518E+01  0.000000000000E+00  5.680591485112E-03 -2.163712649048E-02 -1.269655399721E-02      633
 Y   6.071150533546E+00  6.992412270681E+00  1.962502455708E+01  0.000000000000E+00  6.690177958546E-02 -2.730472150630E-03 -6.179073005735E-03      634
 Y   2.997886599270E+00  5.275104421509E+00  2.021805173352E+01  0.000000000000E+00  7.220257129874E-02  3.231306160169E-02  8.684498836981E-02      636
 Mn  2.022834700958E+00  7.006948545293E+00  1.135654852541E+01  0.000000000000E+00  1.114404560314E-01 -4.008002475957E-02  3.514385503942E-02      637
 Mn  7.125190706147E+00  5.247882619669E+00  1.702762136795E+01  0.000000000000E+00  1.119259770455E-02 -7.681830819617E-02 -6.360608204957E-02      638
 Mn  4.010354445420E+00  6.941983038224E+00  1.706969789446E+01  0.000000000000E+00  1.402194739554E-03 -6.040222147836E-02 -1.002831119135E-02      639
 Mn  5.011542339907E+00  8.845477101053E+00  1.136439519075E+01  0.000000000000E+00  3.063264662278E-02  1.946962564260E-02 -1.253335078071E-02      640
 Mn  5.065719256640E+00  5.289127615792E+00  1.128801837226E+01  0.000000000000E+00 -6.286968302907E-02 -5.004024018569E-02  7.444591489076E-02      641
 O   2.986937489783E+00  8.742083469257E+00  1.729215064524E+01  0.000000000000E+00 -4.048662557142E-02  2.795389740304E-01 -5.036657703208E-02      643
 O   6.008816354003E+00  7.050722182555E+00  1.153675312319E+01  0.000000000000E+00  1.540970819601E-01 -9.097375247852E-02 -3.379727621621E-02      644
 O   2.954914348544E+00  8.730069858991E+00  1.162040925375E+01  0.000000000000E+00  8.917087643614E-02 -2.837635973149E-01  1.892556517995E-01      645
 O   6.004078233172E+00  6.943738103312E+00  1.721883589809E+01  0.000000000000E+00 -1.484056571334E-01 -3.137698914480E-01 -2.776015302480E-02      646
 O   4.925649462835E+00  8.623358710306E+00  2.082450719320E+01  0.000000000000E+00  1.072778386107E-01  1.227823269229E-02  8.060417463882E-02      651
 O   4.083060943573E+00  7.160756570448E+00  1.518773964626E+01  0.000000000000E+00 -8.908752936175E-02  9.886740597912E-03  9.396397426937E-02      652
 O   8.218547575557E-01  8.887581073719E+00  1.888254025547E+01  0.000000000000E+00  9.253733742193E-02 -3.886302084970E-02 -5.074964594427E-02      655
 O   5.062182953368E+00  8.927923230116E+00  1.325815311974E+01  0.000000000000E+00  1.240409200896E-01 -1.278222842862E-01 -3.181855219027E-02      657
 O   3.979346059062E+00  6.784748093763E+00  1.890884059667E+01  0.000000000000E+00  6.166857109292E-02 -5.517715263300E-02 -6.589225122363E-02      658
 O   2.098190569146E+00  6.804212416230E+00  1.322887365872E+01  0.000000000000E+00 -2.091350803621E-01  1.447854581551E-01 -5.520663316067E-02      660
 O   6.124508826875E+00  6.995482377735E+00  2.105328950927E-01  0.000000000000E+00  1.909631419021E-01  1.236994072157E-01 -1.875882773869E-01      614
 O   6.038359078600E-02  7.064818777048E+00  1.144859508061E-01  0.000000000000E+00  1.015671525460E-01  2.225853553438E-01  1.074760771824E-01      134
 O   6.052108275436E+00  3.460577710507E+00  2.327209363238E-01  0.000000000000E+00 -3.809889656927E-02 -1.460638145726E-01  9.116905125357E-03      495
 Y   6.049549940759E+00  3.398524646059E-02  8.765086725649E+00  0.000000000000E+00  7.021146715528E-02  1.671293933248E-02  6.532493243511E-02      486
 Y   9.015096834809E+00  5.329112638401E+00  1.446609599261E+01  0.000000000000E+00  9.035115662192E-03  7.839481579131E-02 -1.305963301659E-02      635
 O   6.054581514853E+00  1.210477224299E-02  5.334714551834E+00  0.000000000000E+00 -6.282957869468E-04 -1.751183945181E-01 -3.733398637974E-01      377
 Y   7.778239865871E-02  9.950536346560E-02  8.823563400328E+00  0.000000000000E+00  4.037453848449E-02  2.605228246981E-02  5.576815241910E-02        6
 O   7.992009554692E+00  7.129197173261E+00  2.085641919353E+01  0.000000000000E+00  1.328232375826E-01  2.824990576994E-02 -3.285258410974E-01      654
 Y   9.082651849169E+00  5.272275822636E+00  2.011893803739E+01  0.000000000000E+00  3.775249951126E-02 -3.933554283760E-02 -9.157142684944E-02     1116
 O  -2.072062990075E+00  3.653134556771E+00  7.559086435969E+00  0.000000000000E+00 -8.646562380805E-03 -2.718689040545E-01 -4.389717463204E-03       25
 O  -9.486443293069E-01  2.017641770787E+00  9.551861500972E+00  0.000000000000E+00 -9.382271144490E-02  5.985872489030E-02 -2.743970500529E-01     1464
 O   6.069851810145E+00  8.131091116056E-02  1.106122585741E+01  0.000000000000E+00 -1.443186907136E-01 -1.342738947452E-02 -2.816740491728E-02      378
 Mn -4.980205145478E+00  8.823816981288E+00  1.702127390109E+01  0.000000000000E+00  6.136536763024E-03 -1.213140460842E-01  1.216451860887E-01     1602
 Mn -1.988011104069E+00  3.463747514460E+00  1.701981551996E+01  0.000000000000E+00  2.069125997381E-02 -8.682797665176E-02 -5.805698333228E-02     1482
 Y  -4.557512495921E-02  1.046917169935E+01  1.450633850133E+01  0.000000000000E+00  9.075000407488E-02  7.115705337633E-02 -7.287836715453E-02      275
 Mn -1.925415419377E+00  3.508669428741E+00  5.695448882391E+00  0.000000000000E+00 -2.623025647817E-01 -3.301394095800E-02  5.154017860669E-02     1452
 Mn  1.110362820595E+01  1.769664867663E+00  1.131910039806E+01  0.000000000000E+00  9.549205276528E-03  7.388592895156E-04 -6.631364007402E-02      997
 Mn -2.026502492306E+00  1.051301617184E+01  1.702238463869E+01  0.000000000000E+00 -1.896079778454E-02  7.787447202673E-02  1.216387643127E-02      278
 O  -1.842152163290E+00  3.300883240762E+00  3.847862057230E+00  0.000000000000E+00  7.031631869963E-02  4.203409605852E-02  1.094630145720E-01     1459
 O  -8.816980208479E-01  1.632108960342E+00  1.324566459461E+01  0.000000000000E+00 -2.600436354646E-01 -6.999224811407E-03 -3.570391469450E-02       60
 Y   6.574958940302E-02  3.355695073855E-02  3.161129187867E+00  0.000000000000E+00 -2.705038551084E-02  2.722820947421E-02  2.759492916472E-02     1445
 Mn  4.063911198683E+00  1.831047264351E-02  5.665514417005E+00  0.000000000000E+00  1.092871419729E-02 -6.027463175312E-02  3.350473805370E-02        8
 O  -5.092535162726E+00  8.895998229154E+00  1.888614989810E+01  0.000000000000E+00  1.834877950217E-01 -1.880166330231E-01  1.595936783194E-01      175
 O   4.193312278298E+00  3.013258693100E-02  7.573211396593E+00  0.000000000000E+00 -5.314618197652E-03  9.341888633284E-02 -1.151417144273E-01      389
 O   1.543746765647E-01  3.489288611647E-02  5.425499147019E+00  0.000000000000E+00  5.445808450776E-02  8.761700467688E-02  1.471664955217E-01     1817
 Mn -9.109151834780E-01  1.824979646055E+00  1.136403792782E+01  0.000000000000E+00 -6.554965998531E-03 -1.079261684356E-01  1.344656085824E-01       37
 O  -1.092209190402E-02  1.050734944201E+01  1.673236138823E+01  0.000000000000E+00 -6.633192094348E-02  1.441499166067E-01  5.305230963785E-02      167
 Y   6.037071204435E+00  6.622939326712E-02  2.017743751308E+01  0.000000000000E+00  2.423194583529E-04  5.057326513624E-02  1.637107826248E-02      516
 Y  -2.980323139483E+00  5.249507819535E+00  2.020965442684E+01  0.000000000000E+00 -7.767051846633E-02 -1.042420199523E-02  4.318059972382E-02      156
 O   7.959899746706E+00  7.196215765188E+00  9.477193212940E+00  0.000000000000E+00  8.400046338764E-02  4.802682847966E-02  1.038585526482E-01      624
 O   3.963947847519E+00  1.790296362102E-02  1.519884586299E+01  0.000000000000E+00  1.093969961295E-01  7.480610740324E-02  1.341836036651E-01      413
 O  -4.876029435722E+00  8.646721228497E+00  1.510451687731E+01  0.000000000000E+00 -7.197378870856E-03 -2.201501988979E-01 -4.168065390683E-01     1609
 O   2.223608284075E+00  1.581737694906E-02  9.517309520739E+00  0.000000000000E+00  7.376754897232E-02  8.170824622891E-02  1.356218421174E-01      380
 O   1.016714611963E+01  3.423594531107E+00  1.511497578291E+01  0.000000000000E+00 -4.737455607614E-02  9.335064208301E-02  2.069313031338E-02      529
 O   6.078560977420E+00  2.935720510023E-02  2.245546132812E+01  0.000000000000E+00  1.350051711604E-01 -3.468622284787E-03 -1.435203307056E-02      408
 O   4.205170302980E+00  8.809857150588E-02  1.891697789299E+01  0.000000000000E+00  7.414481112178E-03  1.969079303854E-01 -1.163640882616E-01      419
 Mn  7.967981088538E+00  7.064301637895E+00  1.132287026062E+01  0.000000000000E+00  9.654674568393E-03 -1.745817283620E-02  2.476185140176E-02     1117